LAMMPS data file. CGCMM
9000 atoms  
7500 bonds  
10500 angles  
4500 dihedrals  
0 impropers  
4 atom types 
3 bond types 
3 angle types 
1 dihedral types 
0 improper types 
-5.6410107007728101e+00 4.5637012700775976e+01 xlo xhi
-5.6300107007728144e+00 4.5648012700775972e+01 ylo yhi
-5.6140117007728136e+00 4.5664011700776022e+01 zlo zhi
   
# Pair Coeffs 
#   
# 1 C1 
# 2 C2 
# 3 H 
# 4 N 
   
# Bond Coeffs 
#   
# 1 C1-C2 
# 2 C1-N 
# 3 C2-H 
   
# Angle Coeffs 
#   
# 1 C1-C2-H 
# 2 C2-C1-N 
# 3 H-C2-H 
   
# Dihedral Coeffs 
#   
# 1 N-C1-C2-H 
   
Masses   
   
1 12.011000 # C1
2 12.011000 # C2
3 1.008000 # H
4 14.007000 # N
   
Atoms # full 
   
1 1 4 0.000000             26.2452 22.0713 42.7227	       
2 1 1 0.000000		   25.7531 23.0586 42.2804	       
3 1 2 0.000000		   25.5082 24.3994 41.7385	       
4 1 3 0.000000		   24.4605 24.6422 41.4629	       
5 1 3 0.000000		   25.8219 25.1551 42.4394	       
6 1 3 0.000000		   26.0406 24.5154 40.7738	       
7 2 4 0.000000		   -1.22338 35.0596 1.14705       
8 2 1 0.000000		   -2.36694 35.2116 0.759413      
9 2 2 0.000000		   -3.75294 35.1941 0.294954      
10 2 3 0.000000		   -3.85548 35.9644 -0.510703     
11 2 3 0.000000		   -3.99344 34.2456 -0.205031     
12 2 3 0.000000		   -4.37425 35.4623 1.11571       
13 3 4 0.000000		   37.7513 45.3776 1.73139	       
14 3 1 0.000000		   38.6869 45.4146 0.972018       
15 3 2 0.000000		   39.7676 45.4327 0.0409111      
16 3 3 0.000000		   40.5196 -5.13782 0.385721      
17 3 3 0.000000		   40.3392 44.4968 0.04076	       
18 3 3 0.000000		   39.4817 45.6031 -0.960294      
19 4 4 0.000000		   10.5114 20.1163 27.023	       
20 4 1 0.000000		   9.78474 20.1356 27.9526	       
21 4 2 0.000000		   8.86741 20.1317 29.1031	       
22 4 3 0.000000		   8.69473 19.1535 29.4277	       
23 4 3 0.000000		   9.19519 20.6529 30.0303	       
24 4 3 0.000000		   7.8982 20.6064 28.806	       
25 5 4 0.000000		   15.6317 4.56536 13.1123	       
26 5 1 0.000000		   16.2518 5.06153 13.9671	       
27 5 2 0.000000		   17.1441 5.78016 14.9394	       
28 5 3 0.000000		   16.5608 6.37794 15.6266	       
29 5 3 0.000000		   17.8044 5.11886 15.451	       
30 5 3 0.000000		   17.8356 6.47901 14.3815	       
31 6 4 0.000000		   21.946 22.7504 16.714	       
32 6 1 0.000000		   22.2591 23.8708 16.7993	       
33 6 2 0.000000		   22.307 25.277 17.0893	       
34 6 3 0.000000		   21.4836 25.4629 17.7279	       
35 6 3 0.000000		   23.2969 25.4509 17.5099	       
36 6 3 0.000000		   22.135 25.8318 16.1351	       
37 7 4 0.000000		   3.21389 29.7959 30.3308	       
38 7 1 0.000000		   4.37108 29.5596 30.453	       
39 7 2 0.000000		   5.75852 29.4593 30.7739	       
40 7 3 0.000000		   6.0416 30.2324 31.5144	       
41 7 3 0.000000		   6.00455 28.5327 31.1349	       
42 7 3 0.000000		   6.35939 29.6176 29.8344	       
43 8 4 0.000000		   15.1145 22.7688 4.46313	       
44 8 1 0.000000		   14.6823 21.7135 4.69897	       
45 8 2 0.000000		   13.9199 20.4865 4.99449	       
46 8 3 0.000000		   13.981 19.6655 4.23194	       
47 8 3 0.000000		   14.2153 20.0736 5.94173	       
48 8 3 0.000000		   12.9198 20.7081 5.09472	       
49 9 4 0.000000		   10.4453 -5.33885 25.3564       
50 9 1 0.000000		   11.4479 -4.76803 25.2104       
51 9 2 0.000000		   12.7163 -4.05631 24.9888       
52 9 3 0.000000		   12.7008 -3.14023 25.5372       
53 9 3 0.000000		   13.5416 -4.69633 25.2078       
54 9 3 0.000000		   12.742 -3.65816 23.9352	       
55 10 4 0.000000	   1.41174 -5.2079 17.2495	       
56 10 1 0.000000	   1.58387 -4.23692 17.8999       
57 10 2 0.000000	   1.90959 -3.13579 18.7655       
58 10 3 0.000000	   2.6221 -2.52832 18.2427	       
59 10 3 0.000000	   1.02847 -2.57943 19.2351       
60 10 3 0.000000	   2.46126 -3.47254 19.6222       
61 11 4 0.000000	   2.59822 3.09275 41.1632	       
62 11 1 0.000000	   1.97126 3.12304 40.1645	       
63 11 2 0.000000	   1.17331 3.16964 39.0209	       
64 11 3 0.000000	   1.47631 2.32722 38.45	       
65 11 3 0.000000	   0.168236 3.12937 39.3916       
66 11 3 0.000000	   1.34634 4.05596 38.412	       
67 12 4 0.000000	   16.4951 17.5048 25.9793	       
68 12 1 0.000000	   16.3501 17.4229 24.8459	       
69 12 2 0.000000	   16.239 17.2611 23.4132	       
70 12 3 0.000000	   15.214 17.5912 23.1016	       
71 12 3 0.000000	   17.0127 17.9192 22.9251	       
72 12 3 0.000000	   16.4097 16.2513 23.0904	       
73 13 4 0.000000	   -2.41852 7.68577 40.5523       
74 13 1 0.000000	   -2.65029 8.5747 41.2624	       
75 13 2 0.000000	   -2.94988 9.66753 42.1999       
76 13 3 0.000000	   -3.90327 10.1544 41.9515       
77 13 3 0.000000	   -3.04723 9.4046 43.2603	       
78 13 3 0.000000	   -2.19225 10.4092 42.2123       
79 14 4 0.000000	   44.4464 29.4009 4.13711	       
80 14 1 0.000000	   44.8647 29.7781 5.17173	       
81 14 2 0.000000	   45.4181 30.3785 6.36387	       
82 14 3 0.000000	   -5.12119 31.1436 6.03255       
83 14 3 0.000000	   44.5998 30.7968 6.92583	       
84 14 3 0.000000	   -5.40973 29.6198 7.06975       
85 15 4 0.000000	   6.78354 40.7822 19.5804	       
86 15 1 0.000000	   7.00807 41.6982 20.2923	       
87 15 2 0.000000	   7.22128 42.8654 21.1155	       
88 15 3 0.000000	   7.10953 42.6152 22.1503	       
89 15 3 0.000000	   8.19892 43.3942 21.0113	       
90 15 3 0.000000	   6.48469 43.5746 20.8524	       
91 16 4 0.000000	   22.6744 4.94541 40.1655	       
92 16 1 0.000000	   22.4504 5.79114 40.8907	       
93 16 2 0.000000	   22.137 6.81895 41.8211	       
94 16 3 0.000000	   23.098 7.08209 42.068	       
95 16 3 0.000000	   21.6175 7.71276 41.4074	       
96 16 3 0.000000	   21.5872 6.45038 42.6717	       
97 17 4 0.000000	   6.82883 12.3955 10.5638	       
98 17 1 0.000000	   5.75659 12.7737 10.2527	       
99 17 2 0.000000	   4.43148 13.2644 9.95621	       
100 17 3 0.000000	   4.17273 14.0137 10.7067	       
101 17 3 0.000000	   4.50004 13.6931 8.9578	       
102 17 3 0.000000	   3.63091 12.5692 9.88957	       
103 18 4 0.000000	   14.7724 -1.18688 16.8516       
104 18 1 0.000000	   13.6776 -1.47406 16.5261       
105 18 2 0.000000	   12.3864 -1.81912 16.1226       
106 18 3 0.000000	   11.9303 -1.05807 15.5317       
107 18 3 0.000000	   12.3983 -2.71137 15.5723       
108 18 3 0.000000	   11.7222 -1.97307 16.9959       
109 19 4 0.000000	   -4.6495 37.186 12.1905	       
110 19 1 0.000000	   -3.63196 37.7412 11.9289       
111 19 2 0.000000	   -2.57449 38.6627 11.9749       
112 19 3 0.000000	   -2.8734 39.4149 12.7007	       
113 19 3 0.000000	   -1.73906 38.1438 12.3678       
114 19 3 0.000000	   -2.41799 39.1424 11.0198       
115 20 4 0.000000	   21.822 15.1095 -0.596839       
116 20 1 0.000000	   21.0228 15.9116 -0.315207      
117 20 2 0.000000	   20.1027 16.9194 0.0769896      
118 20 3 0.000000	   20.5372 17.8954 0.00582507     
119 20 3 0.000000	   19.3021 16.9131 -0.661946      
120 20 3 0.000000	   19.6706 16.5561 0.97854	       
121 21 4 0.000000	   0.875926 26.3884 25.4817       
122 21 1 0.000000	   0.073977 25.9962 26.2188       
123 21 2 0.000000	   -0.894256 25.4399 27.1185      
124 21 3 0.000000	   -1.50872 24.7056 26.5471       
125 21 3 0.000000	   -0.407093 24.9416 27.9146      
126 21 3 0.000000	   -1.48221 26.259 27.593	       
127 22 4 0.000000	   35.824 19.0335 28.618	       
128 22 1 0.000000	   35.4259 19.7026 27.7595	       
129 22 2 0.000000	   35.1667 20.487 26.4891	       
130 22 3 0.000000	   35.2095 21.5664 26.7272	       
131 22 3 0.000000	   35.969 20.2844 25.7509	       
132 22 3 0.000000	   34.1649 20.3051 26.1254	       
133 23 4 0.000000	   41.5456 0.332212 43.7081       
134 23 1 0.000000	   41.0087 0.569285 44.6979       
135 23 2 0.000000	   40.2316 0.767641 -5.42671      
136 23 3 0.000000	   40.5815 1.57057 -4.87865       
137 23 3 0.000000	   39.1872 0.944411 45.5376       
138 23 3 0.000000	   40.2868 -0.201044 -4.80762     
139 24 4 0.000000	   11.3419 25.4563 5.08537	       
140 24 1 0.000000	   10.464 25.2321 4.33101	       
141 24 2 0.000000	   9.57853 24.9571 3.19287	       
142 24 3 0.000000	   8.80947 24.2554 3.51764	       
143 24 3 0.000000	   9.08269 25.8663 2.94639	       
144 24 3 0.000000	   10.0536 24.4003 2.39277	       
145 25 4 0.000000	   16.9927 28.7212 39.5995	       
146 25 1 0.000000	   17.4246 29.264 38.6652	       
147 25 2 0.000000	   17.7142 29.856 37.3459	       
148 25 3 0.000000	   18.695 29.5843 37.0807	       
149 25 3 0.000000	   17.0561 29.464 36.5649	       
150 25 3 0.000000	   17.5639 30.9638 37.3683	       
151 26 4 0.000000	   29.5604 26.2471 20.0392	       
152 26 1 0.000000	   29.6225 27.4055 20.1341	       
153 26 2 0.000000	   29.6474 28.8041 20.139	       
154 26 3 0.000000	   28.6785 29.1494 20.5141	       
155 26 3 0.000000	   30.3957 29.1881 20.7854	       
156 26 3 0.000000	   29.6484 29.1977 19.1623	       
157 27 4 0.000000	   30.0641 10.6153 38.9169	       
158 27 1 0.000000	   31.1929 10.531 39.2219	       
159 27 2 0.000000	   32.585 10.4032 39.5743	       
160 27 3 0.000000	   33.0225 11.3578 39.8309	       
161 27 3 0.000000	   32.7139 9.81848 40.4916	       
162 27 3 0.000000	   33.1466 9.99773 38.7279	       
163 28 4 0.000000	   17.3365 4.21505 8.09284	       
164 28 1 0.000000	   16.8785 3.58162 8.97697	       
165 28 2 0.000000	   16.353 2.7959 10.0645	       
166 28 3 0.000000	   15.3587 3.12938 10.3021	       
167 28 3 0.000000	   16.1563 1.72904 9.87627	       
168 28 3 0.000000	   17.0118 2.8741 10.9353	       
169 29 4 0.000000	   41.3103 22.2371 20.2009	       
170 29 1 0.000000	   41.3716 21.3076 20.9036	       
171 29 2 0.000000	   41.419 20.0765 21.7989	       
172 29 3 0.000000	   42.3676 19.616 21.7501	       
173 29 3 0.000000	   41.1127 20.2966 22.8496	       
174 29 3 0.000000	   40.6219 19.3901 21.3887	       
175 30 4 0.000000	   -1.63083 7.12385 -2.53766      
176 30 1 0.000000	   -2.06059 6.02542 -2.61879      
177 30 2 0.000000	   -2.65441 4.71358 -2.95344      
178 30 3 0.000000	   -3.53814 4.76403 -3.69462      
179 30 3 0.000000	   -1.85505 4.13898 -3.33751      
180 30 3 0.000000	   -2.98229 4.19701 -2.08986      
181 31 4 0.000000	   5.58116 24.5864 22.1512	       
182 31 1 0.000000	   5.87479 25.5547 22.716	       
183 31 2 0.000000	   6.25463 26.8912 23.2383	       
184 31 3 0.000000	   7.09589 26.6783 23.9427	       
185 31 3 0.000000	   6.49415 27.5496 22.3936	       
186 31 3 0.000000	   5.39768 27.2876 23.7947	       
187 32 4 0.000000	   26.9793 36.3657 25.6915	       
188 32 1 0.000000	   26.823 36.7895 24.5743	       
189 32 2 0.000000	   26.7318 37.2869 23.2407	       
190 32 3 0.000000	   26.9338 36.4994 22.5245	       
191 32 3 0.000000	   25.6822 37.627 23.0516	       
192 32 3 0.000000	   27.4033 38.1482 23.0185	       
193 33 4 0.000000	   16.7583 3.83643 17.7131	       
194 33 1 0.000000	   15.9231 3.12927 17.3414	       
195 33 2 0.000000	   14.6654 2.55293 16.8916	       
196 33 3 0.000000	   13.9581 3.35307 16.6546	       
197 33 3 0.000000	   14.7369 1.89324 16.0277	       
198 33 3 0.000000	   14.2769 1.91071 17.655	       
199 34 4 0.000000	   5.45691 7.85412 34.6817	       
200 34 1 0.000000	   4.58059 7.05553 34.7475	       
201 34 2 0.000000	   3.38759 6.23875 34.8964	       
202 34 3 0.000000	   3.33619 5.61335 33.9907	       
203 34 3 0.000000	   3.45645 5.58974 35.8612	       
204 34 3 0.000000	   2.58598 6.901 34.9659	       
205 35 4 0.000000	   4.69771 20.7022 40.8375	       
206 35 1 0.000000	   4.19199 21.5575 40.2511	       
207 35 2 0.000000	   3.51499 22.6262 39.4642	       
208 35 3 0.000000	   4.18182 23.4453 39.2329	       
209 35 3 0.000000	   3.05103 22.2851 38.6284	       
210 35 3 0.000000	   2.69266 22.9462 40.0912	       
211 36 4 0.000000	   33.0754 30.9754 36.6126	       
212 36 1 0.000000	   32.3581 31.5507 35.9027	       
213 36 2 0.000000	   31.3559 32.1593 35.0238	       
214 36 3 0.000000	   30.3787 31.6212 35.106	       
215 36 3 0.000000	   31.3252 33.242 35.1756	       
216 36 3 0.000000	   31.5964 32.0298 33.9673	       
217 37 4 0.000000	   42.8408 8.59659 28.8933	       
218 37 1 0.000000	   43.9008 8.3205 28.4599	       
219 37 2 0.000000	   45.3214 8.00361 28.1694	       
220 37 3 0.000000	   -5.72078 7.57268 29.1488       
221 37 3 0.000000	   45.4977 7.36393 27.3289	       
222 37 3 0.000000	   -5.41619 8.8838 28.1279	       
223 38 4 0.000000	   33.9922 4.28778 28.3042	       
224 38 1 0.000000	   33.0816 4.1045 29.0161	       
225 38 2 0.000000	   31.7687 3.83166 29.6891	       
226 38 3 0.000000	   31.7938 4.26194 30.6473	       
227 38 3 0.000000	   31.011 4.30794 29.1119	       
228 38 3 0.000000	   31.6391 2.75536 29.737	       
229 39 4 0.000000	   8.06995 26.0133 -3.2634	       
230 39 1 0.000000	   8.48231 25.8702 -4.33786       
231 39 2 0.000000	   9.16394 25.6584 45.7033	       
232 39 3 0.000000	   9.03241 24.6031 45.3899	       
233 39 3 0.000000	   8.77654 26.3271 44.9181	       
234 39 3 0.000000	   10.1347 25.9895 -5.33756       
235 40 4 0.000000	   21.7327 36.5998 -4.15757       
236 40 1 0.000000	   22.8227 36.2021 -4.04715       
237 40 2 0.000000	   24.1981 35.7123 -3.83681       
238 40 3 0.000000	   24.3998 35.0023 -4.57798       
239 40 3 0.000000	   24.8101 36.5473 -4.04907       
240 40 3 0.000000	   24.298 35.4026 -2.81841	       
241 41 4 0.000000	   43.118 1.17631 19.709	       
242 41 1 0.000000	   43.525 0.212288 20.181	       
243 41 2 0.000000	   44.057 -0.869611 21.0973       
244 41 3 0.000000	   45.0305 -0.682031 21.5707      
245 41 3 0.000000	   43.3224 -1.23536 21.7593       
246 41 3 0.000000	   44.2338 -1.69714 20.4243       
247 42 4 0.000000	   -1.29425 30.0806 -3.22526      
248 42 1 0.000000	   -1.49351 31.0009 -2.52557      
249 42 2 0.000000	   -1.67589 32.3636 -1.96143      
250 42 3 0.000000	   -1.69193 32.4792 -0.869825     
251 42 3 0.000000	   -0.990832 33.0101 -2.42023     
252 42 3 0.000000	   -2.69361 32.6464 -2.30897      
253 43 4 0.000000	   8.50606 41.3437 4.73146	       
254 43 1 0.000000	   9.35812 40.9791 4.02512	       
255 43 2 0.000000	   10.5089 40.5081 3.33044	       
256 43 3 0.000000	   11.4078 40.5396 3.93509	       
257 43 3 0.000000	   10.2946 39.425 3.00777	       
258 43 3 0.000000	   10.6539 41.1691 2.47116	       
259 44 4 0.000000	   -4.05801 -3.3797 3.26115       
260 44 1 0.000000	   -4.80456 -4.24723 3.07137      
261 44 2 0.000000	   45.5136 -5.34641 2.84485       
262 44 3 0.000000	   44.4522 -4.98567 2.68198       
263 44 3 0.000000	   45.8646 45.4509 1.92212	       
264 44 3 0.000000	   -5.71361 45.1254 3.59906       
265 45 4 0.000000	   33.978 14.4328 15.2729	       
266 45 1 0.000000	   33.2466 15.289 15.1559	       
267 45 2 0.000000	   32.4806 16.5011 14.9569	       
268 45 3 0.000000	   32.1095 16.4346 13.9448	       
269 45 3 0.000000	   31.6988 16.4338 15.6726	       
270 45 3 0.000000	   33.0839 17.3458 15.1664	       
271 46 4 0.000000	   31.043 17.5349 30.6986	       
272 46 1 0.000000	   31.5767 18.5588 30.7913	       
273 46 2 0.000000	   32.4664 19.7208 31.0325	       
274 46 3 0.000000	   32.1986 20.6474 30.4767	       
275 46 3 0.000000	   32.6179 19.9166 32.1217	       
276 46 3 0.000000	   33.3725 19.4762 30.4918	       
277 47 4 0.000000	   33.0163 6.48555 41.0297	       
278 47 1 0.000000	   32.0822 6.81302 41.6821	       
279 47 2 0.000000	   30.8996 6.88821 42.542	       
280 47 3 0.000000	   30.0287 7.23266 42.0492	       
281 47 3 0.000000	   30.7817 5.94157 43.1391	       
282 47 3 0.000000	   31.0955 7.65715 43.2489	       
283 48 4 0.000000	   38.0761 6.03813 33.0077	       
284 48 1 0.000000	   37.3905 6.94699 33.2306	       
285 48 2 0.000000	   36.3682 7.92122 33.2708	       
286 48 3 0.000000	   35.6574 7.88254 32.5687	       
287 48 3 0.000000	   35.8492 7.8653 34.2557	       
288 48 3 0.000000	   36.787 8.86369 33.0498	       
289 49 4 0.000000	   42.3662 -0.973214 7.9266       
290 49 1 0.000000	   43.0202 -0.0639362 8.32242     
291 49 2 0.000000	   43.7778 0.967312 9.0174	       
292 49 3 0.000000	   44.6295 1.28244 8.4076	       
293 49 3 0.000000	   43.1509 1.82644 9.28983	       
294 49 3 0.000000	   44.1576 0.577944 9.93102       
295 50 4 0.000000	   25.2401 13.0042 30.4409	       
296 50 1 0.000000	   25.8934 12.1491 30.8801	       
297 50 2 0.000000	   26.8284 11.344 31.6572	       
298 50 3 0.000000	   27.8578 11.2941 31.2966	       
299 50 3 0.000000	   26.8686 11.4985 32.744	       
300 50 3 0.000000	   26.434 10.3266 31.548	       
301 51 4 0.000000	   2.44993 19.9613 25.9207	       
302 51 1 0.000000	   1.63643 20.6148 26.5144	       
303 51 2 0.000000	   0.743546 21.2995 27.4973       
304 51 3 0.000000	   1.2687 21.1234 28.3993	       
305 51 3 0.000000	   0.63261 22.3245 27.2374	       
306 51 3 0.000000	   -0.260522 20.8511 27.5103      
307 52 4 0.000000	   40.335 7.00521 38.0723	       
308 52 1 0.000000	   41.4543 7.32212 37.9072	       
309 52 2 0.000000	   42.8735 7.68984 37.6828	       
310 52 3 0.000000	   43.3417 7.00198 36.949	       
311 52 3 0.000000	   42.8743 8.68345 37.3644	       
312 52 3 0.000000	   43.4011 7.63492 38.7144	       
313 53 4 0.000000	   32.1504 38.3726 28.0126	       
314 53 1 0.000000	   30.9929 38.1954 27.9245	       
315 53 2 0.000000	   29.5678 37.9772 27.7531	       
316 53 3 0.000000	   29.1514 38.7793 27.1845	       
317 53 3 0.000000	   29.5256 37.1455 27.1168	       
318 53 3 0.000000	   29.1012 37.7283 28.663	       
319 54 4 0.000000	   27.2356 39.3208 41.8589	       
320 54 1 0.000000	   27.9768 39.6482 42.6785	       
321 54 2 0.000000	   28.9521 40.2189 43.5662	       
322 54 3 0.000000	   29.7642 40.6647 42.9155	       
323 54 3 0.000000	   28.4336 41.0214 44.105	       
324 54 3 0.000000	   29.3571 39.4424 44.2144	       
325 55 4 0.000000	   40.3472 19.7847 9.57266	       
326 55 1 0.000000	   41.1435 18.9997 9.18844	       
327 55 2 0.000000	   42.3828 18.2424 8.842	       
328 55 3 0.000000	   42.164 17.3242 8.28033	       
329 55 3 0.000000	   43.119 18.9106 8.34573	       
330 55 3 0.000000	   42.7795 17.9612 9.74351	       
331 56 4 0.000000	   20.9064 27.1402 35.7447	       
332 56 1 0.000000	   21.6924 26.2683 35.6132	       
333 56 2 0.000000	   22.4792 25.0256 35.6048	       
334 56 3 0.000000	   23.5923 25.2399 35.7349	       
335 56 3 0.000000	   22.2134 24.3423 36.4548	       
336 56 3 0.000000	   22.3116 24.3742 34.7617	       
337 57 4 0.000000	   8.54419 27.7474 30.9455	       
338 57 1 0.000000	   8.75339 27.3121 32.0427	       
339 57 2 0.000000	   9.01011 26.9911 33.4768	       
340 57 3 0.000000	   8.79605 25.9474 33.6709	       
341 57 3 0.000000	   10.0885 27.2179 33.6327	       
342 57 3 0.000000	   8.34125 27.6596 34.0661	       
343 58 4 0.000000	   39.6277 28.5036 41.4228	       
344 58 1 0.000000	   40.0962 29.1216 40.5275	       
345 58 2 0.000000	   40.5753 29.9237 39.4078	       
346 58 3 0.000000	   41.1504 29.2108 38.7719	       
347 58 3 0.000000	   39.6989 30.4114 38.892	       
348 58 3 0.000000	   41.2807 30.6785 39.767	       
349 59 4 0.000000	   11.6897 28.0689 39.4359	       
350 59 1 0.000000	   11.2859 27.6745 40.4486	       
351 59 2 0.000000	   10.7295 27.1929 41.7412	       
352 59 3 0.000000	   9.7534 26.8122 41.5878	       
353 59 3 0.000000	   11.4176 26.5199 42.28	       
354 59 3 0.000000	   10.6541 28.025 42.4262	       
355 60 4 0.000000	   36.8719 2.85002 2.72525	       
356 60 1 0.000000	   36.8931 1.73353 2.4322	       
357 60 2 0.000000	   37.0132 0.293902 2.13202       
358 60 3 0.000000	   37.8857 0.101364 1.47479       
359 60 3 0.000000	   37.0742 -0.281118 3.07138      
360 60 3 0.000000	   36.076 -0.0169508 1.59134      
361 61 4 0.000000	   30.4609 40.2572 25.2086	       
362 61 1 0.000000	   31.6333 40.1764 25.2462	       
363 61 2 0.000000	   33.0765 40.1123 25.2932	       
364 61 3 0.000000	   33.2947 39.2181 25.8517	       
365 61 3 0.000000	   33.4994 40.0262 24.2569	       
366 61 3 0.000000	   33.5349 41.0098 25.7839	       
367 62 4 0.000000	   19.9835 22.7881 45.3845	       
368 62 1 0.000000	   19.2278 23.4121 44.753	       
369 62 2 0.000000	   18.3199 24.1931 43.8889	       
370 62 3 0.000000	   17.3669 24.2745 44.3262	       
371 62 3 0.000000	   18.7775 25.1733 43.753	       
372 62 3 0.000000	   18.2281 23.7358 42.9136	       
373 63 4 0.000000	   31.2775 25.9458 26.9451	       
374 63 1 0.000000	   32.1648 25.7101 26.1891	       
375 63 2 0.000000	   33.4116 25.5623 25.4789	       
376 63 3 0.000000	   33.8303 26.5334 25.2285	       
377 63 3 0.000000	   34.0924 24.9878 26.1421	       
378 63 3 0.000000	   33.2738 25.0549 24.5315	       
379 64 4 0.000000	   14.9281 17.4724 32.2768	       
380 64 1 0.000000	   14.7695 18.5341 32.68	       
381 64 2 0.000000	   14.4164 19.9272 33.0597	       
382 64 3 0.000000	   13.6608 20.4589 32.4344	       
383 64 3 0.000000	   14.0671 19.9073 34.0913	       
384 64 3 0.000000	   15.3226 20.514 33.0757	       
385 65 4 0.000000	   22.1703 43.8938 5.93371	       
386 65 1 0.000000	   22.7324 44.6764 5.24195	       
387 65 2 0.000000	   23.7033 45.5647 4.43092	       
388 65 3 0.000000	   24.5329 44.9355 4.0923	       
389 65 3 0.000000	   23.1494 -5.1596 3.67906	       
390 65 3 0.000000	   24.0632 -4.88296 5.0952	       
391 66 4 0.000000	   40.1957 14.4129 1.56926	       
392 66 1 0.000000	   40.5261 14.3574 0.44601	       
393 66 2 0.000000	   40.9727 14.3429 -0.984072      
394 66 3 0.000000	   41.8424 13.6825 -0.985383      
395 66 3 0.000000	   40.0818 14.01 -1.5524	       
396 66 3 0.000000	   41.3151 15.2866 -1.36618       
397 67 4 0.000000	   20.4078 1.36764 3.02508	       
398 67 1 0.000000	   20.8728 2.08984 2.23519	       
399 67 2 0.000000	   21.336 3.06204 1.32306	       
400 67 3 0.000000	   20.9376 4.05483 1.51021	       
401 67 3 0.000000	   22.462 3.11644 1.4024	       
402 67 3 0.000000	   21.0217 2.71733 0.340467       
403 68 4 0.000000	   -2.16205 38.5236 3.16389       
404 68 1 0.000000	   -1.97037 38.9206 2.08311       
405 68 2 0.000000	   -1.46625 39.5134 0.847953      
406 68 3 0.000000	   -0.444474 39.8412 0.97167      
407 68 3 0.000000	   -1.44568 38.7601 0.0525615     
408 68 3 0.000000	   -2.11404 40.3045 0.509831      
409 69 4 0.000000	   38.7057 42.6752 35.4215	       
410 69 1 0.000000	   37.7277 43.2847 35.1821	       
411 69 2 0.000000	   36.5358 44.1153 34.8784	       
412 69 3 0.000000	   36.1176 43.8203 33.8751	       
413 69 3 0.000000	   35.8037 43.8609 35.6171	       
414 69 3 0.000000	   36.7714 45.1894 34.8435	       
415 70 4 0.000000	   2.04558 -4.44002 24.7289       
416 70 1 0.000000	   2.22462 -5.24195 23.9267       
417 70 2 0.000000	   2.30184 45.0254 22.9527	       
418 70 3 0.000000	   3.01777 45.254 22.1623	       
419 70 3 0.000000	   2.70174 44.1866 23.4111	       
420 70 3 0.000000	   1.31498 44.7595 22.5588	       
421 71 4 0.000000	   8.67026 6.71017 15.1098	       
422 71 1 0.000000	   9.28197 5.70651 14.9152	       
423 71 2 0.000000	   10.123 4.55425 15.1968	       
424 71 3 0.000000	   9.55598 3.71684 14.9472	       
425 71 3 0.000000	   10.945 4.59257 14.5109	       
426 71 3 0.000000	   10.552 4.52788 16.2727	       
427 72 4 0.000000	   -0.664026 41.9919 23.4397      
428 72 1 0.000000	   -1.83579 42.1905 23.4455       
429 72 2 0.000000	   -3.26696 42.5299 23.7425       
430 72 3 0.000000	   -3.19199 43.2199 24.5707       
431 72 3 0.000000	   -3.68297 43.0269 22.892	       
432 72 3 0.000000	   -3.88208 41.6912 24.0738       
433 73 4 0.000000	   2.78075 10.071 32.1405	       
434 73 1 0.000000	   3.90431 9.97916 31.8507	       
435 73 2 0.000000	   5.25582 9.5405 31.4112	       
436 73 3 0.000000	   6.00758 10.3271 31.4758	       
437 73 3 0.000000	   5.57348 8.68593 31.9703	       
438 73 3 0.000000	   5.17092 9.2328 30.3575	       
439 74 4 0.000000	   17.5688 -3.68057 14.7386       
440 74 1 0.000000	   17.6071 -4.6178 14.0499	       
441 74 2 0.000000	   17.6079 -5.58402 12.9668       
442 74 3 0.000000	   18.3577 -5.28952 12.3228       
443 74 3 0.000000	   17.7768 44.7369 13.3971	       
444 74 3 0.000000	   16.715 45.6764 12.4243	       
445 75 4 0.000000	   8.91875 45.5602 -4.22558       
446 75 1 0.000000	   9.78227 -4.96923 -4.47894      
447 75 2 0.000000	   10.7711 -4.01066 -4.97247      
448 75 3 0.000000	   10.6438 -2.99335 -4.46377      
449 75 3 0.000000	   11.7487 -4.42876 -4.84934      
450 75 3 0.000000	   10.6113 -3.93942 45.2352       
451 76 4 0.000000	   0.830006 32.2586 9.73045       
452 76 1 0.000000	   1.97962 32.1729 9.39778	       
453 76 2 0.000000	   3.33264 32.0451 8.81798	       
454 76 3 0.000000	   3.83565 31.2178 9.29989	       
455 76 3 0.000000	   3.43477 31.8836 7.7077	       
456 76 3 0.000000	   3.8484 33.0171 9.08122	       
457 77 4 0.000000	   24.8831 11.6112 36.818	       
458 77 1 0.000000	   24.0784 11.0276 36.2054	       
459 77 2 0.000000	   23.0439 10.2663 35.515	       
460 77 3 0.000000	   22.1646 10.9169 35.1848	       
461 77 3 0.000000	   23.4603 9.84568 34.6239	       
462 77 3 0.000000	   22.6754 9.43057 36.2117	       
463 78 4 0.000000	   -3.57456 32.8227 35.0032       
464 78 1 0.000000	   -4.45777 33.3831 34.4725       
465 78 2 0.000000	   -5.56969 34.2074 33.931	       
466 78 3 0.000000	   -5.35701 35.0366 33.2366       
467 78 3 0.000000	   44.9436 33.5844 33.5024	       
468 78 3 0.000000	   45.2982 34.7038 34.8344	       
469 79 4 0.000000	   -4.39185 17.5102 21.3143       
470 79 1 0.000000	   -3.29767 17.2685 21.5262       
471 79 2 0.000000	   -1.86223 17.0733 21.6001       
472 79 3 0.000000	   -1.62568 16.5452 22.4842       
473 79 3 0.000000	   -1.46511 16.5726 20.7354       
474 79 3 0.000000	   -1.45052 18.1329 21.4927       
475 80 4 0.000000	   10.7643 42.9581 32.0987	       
476 80 1 0.000000	   11.9019 43.2463 32.1528	       
477 80 2 0.000000	   13.3475 43.4104 31.981	       
478 80 3 0.000000	   13.6448 44.3419 31.5981	       
479 80 3 0.000000	   13.8044 43.3971 33.0409	       
480 80 3 0.000000	   13.8049 42.6374 31.4001	       
481 81 4 0.000000	   8.22874 20.2203 -1.47124       
482 81 1 0.000000	   7.7689 21.1531 -2.02871	       
483 81 2 0.000000	   7.38004 22.3946 -2.71934       
484 81 3 0.000000	   8.04755 22.6959 -3.53475       
485 81 3 0.000000	   6.39166 22.2436 -3.04698       
486 81 3 0.000000	   7.29412 23.2411 -1.97314       
487 82 4 0.000000	   3.29537 41.722 15.6773	       
488 82 1 0.000000	   2.51275 41.1546 16.3121	       
489 82 2 0.000000	   1.43217 40.4453 17.0185	       
490 82 3 0.000000	   1.2109 39.6051 16.3294	       
491 82 3 0.000000	   1.66566 40.164 18.0006	       
492 82 3 0.000000	   0.483408 41.085 17.0611	       
493 83 4 0.000000	   10.1822 13.3663 0.627463       
494 83 1 0.000000	   10.1601 12.3438 0.04112	       
495 83 2 0.000000	   10.1924 11.0026 -0.557024      
496 83 3 0.000000	   9.40564 10.9144 -1.31635       
497 83 3 0.000000	   11.1463 10.9892 -1.0221	       
498 83 3 0.000000	   10.1294 10.2488 0.21553	       
499 84 4 0.000000	   12.9395 39.3733 -5.51477       
500 84 1 0.000000	   12.5134 40.4599 -5.30895       
501 84 2 0.000000	   11.9558 41.8135 -5.12227       
502 84 3 0.000000	   12.3085 42.4177 45.3116	       
503 84 3 0.000000	   10.8822 41.7041 -5.21649       
504 84 3 0.000000	   12.1598 42.235 -4.16157	       
505 85 4 0.000000	   8.97896 0.111615 24.6429       
506 85 1 0.000000	   8.08156 -0.0895365 23.9352     
507 85 2 0.000000	   6.93714 -0.629798 23.1551      
508 85 3 0.000000	   6.03703 -0.520791 23.726       
509 85 3 0.000000	   6.88134 -0.308324 22.1215      
510 85 3 0.000000	   7.08751 -1.6573 23.0916	       
511 86 4 0.000000	   6.21994 28.9516 34.0718	       
512 86 1 0.000000	   5.04466 29.0416 34.1141	       
513 86 2 0.000000	   3.62899 29.2737 34.2235	       
514 86 3 0.000000	   3.19365 28.5078 34.8655	       
515 86 3 0.000000	   3.36409 30.3184 34.5457	       
516 86 3 0.000000	   3.23025 29.2101 33.2277	       
517 87 4 0.000000	   44.1751 20.4377 34.5065	       
518 87 1 0.000000	   44.1366 19.3159 34.8155	       
519 87 2 0.000000	   44.0898 17.9496 35.3607	       
520 87 3 0.000000	   45.0876 17.6485 35.4287	       
521 87 3 0.000000	   43.7893 18.0649 36.3551	       
522 87 3 0.000000	   43.3762 17.2093 34.9327	       
523 88 4 0.000000	   5.60367 33.1294 -1.24179       
524 88 1 0.000000	   5.73685 33.5024 -0.13633       
525 88 2 0.000000	   5.91535 34.1008 1.19005	       
526 88 3 0.000000	   6.97199 34.4198 1.42432	       
527 88 3 0.000000	   5.24184 34.9943 1.37145	       
528 88 3 0.000000	   5.64535 33.3571 1.91475	       
529 89 4 0.000000	   30.1883 13.2061 28.8399	       
530 89 1 0.000000	   29.0717 13.0263 28.4351	       
531 89 2 0.000000	   27.7884 12.836 27.9202	       
532 89 3 0.000000	   26.9805 13.2077 28.632	       
533 89 3 0.000000	   27.691 13.3855 26.9682	       
534 89 3 0.000000	   27.6262 11.717 27.8137	       
535 90 4 0.000000	   27.7747 38.4633 2.30559	       
536 90 1 0.000000	   27.9947 39.6316 2.44575	       
537 90 2 0.000000	   28.1539 40.9915 2.83525	       
538 90 3 0.000000	   27.8159 41.6759 2.04235	       
539 90 3 0.000000	   27.5618 41.2035 3.82437	       
540 90 3 0.000000	   29.2282 41.2833 2.99514	       
541 91 4 0.000000	   4.95306 0.1761 9.29898	       
542 91 1 0.000000	   4.33259 -0.167179 8.37988      
543 91 2 0.000000	   3.43456 -0.495415 7.28367      
544 91 3 0.000000	   3.29071 0.373526 6.72061       
545 91 3 0.000000	   3.94811 -1.24326 6.65326       
546 91 3 0.000000	   2.41778 -0.917379 7.61102      
547 92 4 0.000000	   45.4467 39.9563 -1.58755       
548 92 1 0.000000	   45.4864 40.4744 -2.63047       
549 92 2 0.000000	   45.4954 40.9214 -4.0378	       
550 92 3 0.000000	   45.0156 41.9241 -3.93263       
551 92 3 0.000000	   -4.79343 41.0676 -4.43141      
552 92 3 0.000000	   44.8821 40.2641 -4.72466       
553 93 4 0.000000	   26.9124 18.8288 13.7006	       
554 93 1 0.000000	   26.9562 19.6461 12.8927	       
555 93 2 0.000000	   27.1982 20.629 11.8654	       
556 93 3 0.000000	   27.6321 21.5369 12.2582	       
557 93 3 0.000000	   27.8842 20.2366 11.1824	       